# vtk DataFile Version 2.0
sampleSurface
ASCII
DATASET POLYDATA
POINTS 521 double
3 5 0
3 5.1 0
3 5.1 0.1
3 5 0.1
3 5.2 0
3 5.2 0.1
3 5.3 0
3 5.3 0.1
3 5.4 0
3 5.4 0.1
3 5.5 0
3 5.5 0.1
3 5.6 0
3 5.6 0.1
3 5.7 0
3 5.7 0.1
3 5.8 0
3 5.8 0.1
3 5.9 0
3 5.9 0.1
3 6 0
3 6 0.1
3 5.1 0.2
3 5 0.2
3 5.2 0.2
3 5.3 0.2
3 5.4 0.2
3 5.5 0.2
3 5.6 0.2
3 5.7 0.2
3 5.8 0.2
3 5.9 0.2
3 6 0.2
3 5.1 0.3
3 5 0.3
3 5.2 0.3
3 5.3 0.3
3 5.4 0.3
3 5.5 0.3
3 5.6 0.3
3 5.7 0.3
3 5.8 0.3
3 5.9 0.3
3 6 0.3
3 5.1 0.4
3 5 0.4
3 5.2 0.4
3 5.3 0.4
3 5.4 0.4
3 5.5 0.4
3 5.6 0.4
3 5.7 0.4
3 5.8 0.4
3 5.9 0.4
3 6 0.4
3 5.1 0.5
3 5 0.5
3 5.2 0.5
3 5.3 0.5
3 5.4 0.5
3 5.5 0.5
3 5.6 0.5
3 5.7 0.5
3 5.8 0.5
3 5.9 0.5
3 6 0.5
3 5.1 0.6
3 5 0.6
3 5.2 0.6
3 5.3 0.6
3 5.4 0.6
3 5.5 0.6
3 5.6 0.6
3 5.7 0.6
3 5.8 0.6
3 5.9 0.6
3 6 0.6
3 5.1 0.7
3 5 0.7
3 5.2 0.7
3 5.3 0.7
3 5.4 0.7
3 5.5 0.7
3 5.6 0.7
3 5.7 0.7
3 5.8 0.7
3 5.9 0.7
3 6 0.7
3 5.1 0.8
3 5 0.8
3 5.2 0.8
3 5.3 0.8
3 5.4 0.8
3 5.5 0.8
3 5.6 0.8
3 5.7 0.8
3 5.8 0.8
3 5.9 0.8
3 6 0.8
3 5.1 0.9
3 5 0.9
3 5.2 0.9
3 5.3 0.9
3 5.4 0.9
3 5.5 0.9
3 5.6 0.9
3 5.7 0.9
3 5.8 0.9
3 5.9 0.9
3 6 0.9
3 5.1 1
3 5 1
3 5.2 1
3 5.3 1
3 5.4 1
3 5.5 1
3 5.6 1
3 5.7 1
3 5.8 1
3 5.9 1
3 6 1
4 5 0
4 5 0.1
4 5.1 0.1
4 5.1 0
4 5.2 0.1
4 5.2 0
4 5.3 0.1
4 5.3 0
4 5.4 0.1
4 5.4 0
4 5.5 0.1
4 5.5 0
4 5.6 0.1
4 5.6 0
4 5.7 0.1
4 5.7 0
4 5.8 0.1
4 5.8 0
4 5.9 0.1
4 5.9 0
4 6 0.1
4 6 0
4 5 0.2
4 5.1 0.2
4 5.2 0.2
4 5.3 0.2
4 5.4 0.2
4 5.5 0.2
4 5.6 0.2
4 5.7 0.2
4 5.8 0.2
4 5.9 0.2
4 6 0.2
4 5 0.3
4 5.1 0.3
4 5.2 0.3
4 5.3 0.3
4 5.4 0.3
4 5.5 0.3
4 5.6 0.3
4 5.7 0.3
4 5.8 0.3
4 5.9 0.3
4 6 0.3
4 5 0.4
4 5.1 0.4
4 5.2 0.4
4 5.3 0.4
4 5.4 0.4
4 5.5 0.4
4 5.6 0.4
4 5.7 0.4
4 5.8 0.4
4 5.9 0.4
4 6 0.4
4 5 0.5
4 5.1 0.5
4 5.2 0.5
4 5.3 0.5
4 5.4 0.5
4 5.5 0.5
4 5.6 0.5
4 5.7 0.5
4 5.8 0.5
4 5.9 0.5
4 6 0.5
4 5 0.6
4 5.1 0.6
4 5.2 0.6
4 5.3 0.6
4 5.4 0.6
4 5.5 0.6
4 5.6 0.6
4 5.7 0.6
4 5.8 0.6
4 5.9 0.6
4 6 0.6
4 5 0.7
4 5.1 0.7
4 5.2 0.7
4 5.3 0.7
4 5.4 0.7
4 5.5 0.7
4 5.6 0.7
4 5.7 0.7
4 5.8 0.7
4 5.9 0.7
4 6 0.7
4 5 0.8
4 5.1 0.8
4 5.2 0.8
4 5.3 0.8
4 5.4 0.8
4 5.5 0.8
4 5.6 0.8
4 5.7 0.8
4 5.8 0.8
4 5.9 0.8
4 6 0.8
4 5 0.9
4 5.1 0.9
4 5.2 0.9
4 5.3 0.9
4 5.4 0.9
4 5.5 0.9
4 5.6 0.9
4 5.7 0.9
4 5.8 0.9
4 5.9 0.9
4 6 0.9
4 5 1
4 5.1 1
4 5.2 1
4 5.3 1
4 5.4 1
4 5.5 1
4 5.6 1
4 5.7 1
4 5.8 1
4 5.9 1
4 6 1
3.1 5 0.1
3.1 5 0
3.1 5 0.2
3.1 5 0.3
3.1 5 0.4
3.1 5 0.5
3.1 5 0.6
3.1 5 0.7
3.1 5 0.8
3.1 5 0.9
3.1 5 1
3.2 5 0.1
3.2 5 0
3.2 5 0.2
3.2 5 0.3
3.2 5 0.4
3.2 5 0.5
3.2 5 0.6
3.2 5 0.7
3.2 5 0.8
3.2 5 0.9
3.2 5 1
3.3 5 0.1
3.3 5 0
3.3 5 0.2
3.3 5 0.3
3.3 5 0.4
3.3 5 0.5
3.3 5 0.6
3.3 5 0.7
3.3 5 0.8
3.3 5 0.9
3.3 5 1
3.4 5 0.1
3.4 5 0
3.4 5 0.2
3.4 5 0.3
3.4 5 0.4
3.4 5 0.5
3.4 5 0.6
3.4 5 0.7
3.4 5 0.8
3.4 5 0.9
3.4 5 1
3.5 5 0.1
3.5 5 0
3.5 5 0.2
3.5 5 0.3
3.5 5 0.4
3.5 5 0.5
3.5 5 0.6
3.5 5 0.7
3.5 5 0.8
3.5 5 0.9
3.5 5 1
3.6 5 0.1
3.6 5 0
3.6 5 0.2
3.6 5 0.3
3.6 5 0.4
3.6 5 0.5
3.6 5 0.6
3.6 5 0.7
3.6 5 0.8
3.6 5 0.9
3.6 5 1
3.7 5 0.1
3.7 5 0
3.7 5 0.2
3.7 5 0.3
3.7 5 0.4
3.7 5 0.5
3.7 5 0.6
3.7 5 0.7
3.7 5 0.8
3.7 5 0.9
3.7 5 1
3.8 5 0.1
3.8 5 0
3.8 5 0.2
3.8 5 0.3
3.8 5 0.4
3.8 5 0.5
3.8 5 0.6
3.8 5 0.7
3.8 5 0.8
3.8 5 0.9
3.8 5 1
3.9 5 0.1
3.9 5 0
3.9 5 0.2
3.9 5 0.3
3.9 5 0.4
3.9 5 0.5
3.9 5 0.6
3.9 5 0.7
3.9 5 0.8
3.9 5 0.9
3.9 5 1
3.1 6 0
3.1 6 0.1
3.1 6 0.2
3.1 6 0.3
3.1 6 0.4
3.1 6 0.5
3.1 6 0.6
3.1 6 0.7
3.1 6 0.8
3.1 6 0.9
3.1 6 1
3.2 6 0
3.2 6 0.1
3.2 6 0.2
3.2 6 0.3
3.2 6 0.4
3.2 6 0.5
3.2 6 0.6
3.2 6 0.7
3.2 6 0.8
3.2 6 0.9
3.2 6 1
3.3 6 0
3.3 6 0.1
3.3 6 0.2
3.3 6 0.3
3.3 6 0.4
3.3 6 0.5
3.3 6 0.6
3.3 6 0.7
3.3 6 0.8
3.3 6 0.9
3.3 6 1
3.4 6 0
3.4 6 0.1
3.4 6 0.2
3.4 6 0.3
3.4 6 0.4
3.4 6 0.5
3.4 6 0.6
3.4 6 0.7
3.4 6 0.8
3.4 6 0.9
3.4 6 1
3.5 6 0
3.5 6 0.1
3.5 6 0.2
3.5 6 0.3
3.5 6 0.4
3.5 6 0.5
3.5 6 0.6
3.5 6 0.7
3.5 6 0.8
3.5 6 0.9
3.5 6 1
3.6 6 0
3.6 6 0.1
3.6 6 0.2
3.6 6 0.3
3.6 6 0.4
3.6 6 0.5
3.6 6 0.6
3.6 6 0.7
3.6 6 0.8
3.6 6 0.9
3.6 6 1
3.7 6 0
3.7 6 0.1
3.7 6 0.2
3.7 6 0.3
3.7 6 0.4
3.7 6 0.5
3.7 6 0.6
3.7 6 0.7
3.7 6 0.8
3.7 6 0.9
3.7 6 1
3.8 6 0
3.8 6 0.1
3.8 6 0.2
3.8 6 0.3
3.8 6 0.4
3.8 6 0.5
3.8 6 0.6
3.8 6 0.7
3.8 6 0.8
3.8 6 0.9
3.8 6 1
3.9 6 0
3.9 6 0.1
3.9 6 0.2
3.9 6 0.3
3.9 6 0.4
3.9 6 0.5
3.9 6 0.6
3.9 6 0.7
3.9 6 0.8
3.9 6 0.9
3.9 6 1
3.1 5.1 1
3.1 5.2 1
3.1 5.3 1
3.1 5.4 1
3.1 5.5 1
3.1 5.6 1
3.1 5.7 1
3.1 5.8 1
3.1 5.9 1
3.2 5.1 1
3.2 5.2 1
3.2 5.3 1
3.2 5.4 1
3.2 5.5 1
3.2 5.6 1
3.2 5.7 1
3.2 5.8 1
3.2 5.9 1
3.3 5.1 1
3.3 5.2 1
3.3 5.3 1
3.3 5.4 1
3.3 5.5 1
3.3 5.6 1
3.3 5.7 1
3.3 5.8 1
3.3 5.9 1
3.4 5.1 1
3.4 5.2 1
3.4 5.3 1
3.4 5.4 1
3.4 5.5 1
3.4 5.6 1
3.4 5.7 1
3.4 5.8 1
3.4 5.9 1
3.5 5.1 1
3.5 5.2 1
3.5 5.3 1
3.5 5.4 1
3.5 5.5 1
3.5 5.6 1
3.5 5.7 1
3.5 5.8 1
3.5 5.9 1
3.6 5.1 1
3.6 5.2 1
3.6 5.3 1
3.6 5.4 1
3.6 5.5 1
3.6 5.6 1
3.6 5.7 1
3.6 5.8 1
3.6 5.9 1
3.7 5.1 1
3.7 5.2 1
3.7 5.3 1
3.7 5.4 1
3.7 5.5 1
3.7 5.6 1
3.7 5.7 1
3.7 5.8 1
3.7 5.9 1
3.8 5.1 1
3.8 5.2 1
3.8 5.3 1
3.8 5.4 1
3.8 5.5 1
3.8 5.6 1
3.8 5.7 1
3.8 5.8 1
3.8 5.9 1
3.9 5.1 1
3.9 5.2 1
3.9 5.3 1
3.9 5.4 1
3.9 5.5 1
3.9 5.6 1
3.9 5.7 1
3.9 5.8 1
3.9 5.9 1

POLYGONS 500 2500
4 0 1 2 3
4 1 4 5 2
4 4 6 7 5
4 6 8 9 7
4 8 10 11 9
4 10 12 13 11
4 12 14 15 13
4 14 16 17 15
4 16 18 19 17
4 18 20 21 19
4 3 2 22 23
4 2 5 24 22
4 5 7 25 24
4 7 9 26 25
4 9 11 27 26
4 11 13 28 27
4 13 15 29 28
4 15 17 30 29
4 17 19 31 30
4 19 21 32 31
4 23 22 33 34
4 22 24 35 33
4 24 25 36 35
4 25 26 37 36
4 26 27 38 37
4 27 28 39 38
4 28 29 40 39
4 29 30 41 40
4 30 31 42 41
4 31 32 43 42
4 34 33 44 45
4 33 35 46 44
4 35 36 47 46
4 36 37 48 47
4 37 38 49 48
4 38 39 50 49
4 39 40 51 50
4 40 41 52 51
4 41 42 53 52
4 42 43 54 53
4 45 44 55 56
4 44 46 57 55
4 46 47 58 57
4 47 48 59 58
4 48 49 60 59
4 49 50 61 60
4 50 51 62 61
4 51 52 63 62
4 52 53 64 63
4 53 54 65 64
4 56 55 66 67
4 55 57 68 66
4 57 58 69 68
4 58 59 70 69
4 59 60 71 70
4 60 61 72 71
4 61 62 73 72
4 62 63 74 73
4 63 64 75 74
4 64 65 76 75
4 67 66 77 78
4 66 68 79 77
4 68 69 80 79
4 69 70 81 80
4 70 71 82 81
4 71 72 83 82
4 72 73 84 83
4 73 74 85 84
4 74 75 86 85
4 75 76 87 86
4 78 77 88 89
4 77 79 90 88
4 79 80 91 90
4 80 81 92 91
4 81 82 93 92
4 82 83 94 93
4 83 84 95 94
4 84 85 96 95
4 85 86 97 96
4 86 87 98 97
4 89 88 99 100
4 88 90 101 99
4 90 91 102 101
4 91 92 103 102
4 92 93 104 103
4 93 94 105 104
4 94 95 106 105
4 95 96 107 106
4 96 97 108 107
4 97 98 109 108
4 100 99 110 111
4 99 101 112 110
4 101 102 113 112
4 102 103 114 113
4 103 104 115 114
4 104 105 116 115
4 105 106 117 116
4 106 107 118 117
4 107 108 119 118
4 108 109 120 119
4 121 122 123 124
4 124 123 125 126
4 126 125 127 128
4 128 127 129 130
4 130 129 131 132
4 132 131 133 134
4 134 133 135 136
4 136 135 137 138
4 138 137 139 140
4 140 139 141 142
4 122 143 144 123
4 123 144 145 125
4 125 145 146 127
4 127 146 147 129
4 129 147 148 131
4 131 148 149 133
4 133 149 150 135
4 135 150 151 137
4 137 151 152 139
4 139 152 153 141
4 143 154 155 144
4 144 155 156 145
4 145 156 157 146
4 146 157 158 147
4 147 158 159 148
4 148 159 160 149
4 149 160 161 150
4 150 161 162 151
4 151 162 163 152
4 152 163 164 153
4 154 165 166 155
4 155 166 167 156
4 156 167 168 157
4 157 168 169 158
4 158 169 170 159
4 159 170 171 160
4 160 171 172 161
4 161 172 173 162
4 162 173 174 163
4 163 174 175 164
4 165 176 177 166
4 166 177 178 167
4 167 178 179 168
4 168 179 180 169
4 169 180 181 170
4 170 181 182 171
4 171 182 183 172
4 172 183 184 173
4 173 184 185 174
4 174 185 186 175
4 176 187 188 177
4 177 188 189 178
4 178 189 190 179
4 179 190 191 180
4 180 191 192 181
4 181 192 193 182
4 182 193 194 183
4 183 194 195 184
4 184 195 196 185
4 185 196 197 186
4 187 198 199 188
4 188 199 200 189
4 189 200 201 190
4 190 201 202 191
4 191 202 203 192
4 192 203 204 193
4 193 204 205 194
4 194 205 206 195
4 195 206 207 196
4 196 207 208 197
4 198 209 210 199
4 199 210 211 200
4 200 211 212 201
4 201 212 213 202
4 202 213 214 203
4 203 214 215 204
4 204 215 216 205
4 205 216 217 206
4 206 217 218 207
4 207 218 219 208
4 209 220 221 210
4 210 221 222 211
4 211 222 223 212
4 212 223 224 213
4 213 224 225 214
4 214 225 226 215
4 215 226 227 216
4 216 227 228 217
4 217 228 229 218
4 218 229 230 219
4 220 231 232 221
4 221 232 233 222
4 222 233 234 223
4 223 234 235 224
4 224 235 236 225
4 225 236 237 226
4 226 237 238 227
4 227 238 239 228
4 228 239 240 229
4 229 240 241 230
4 0 3 242 243
4 3 23 244 242
4 23 34 245 244
4 34 45 246 245
4 45 56 247 246
4 56 67 248 247
4 67 78 249 248
4 78 89 250 249
4 89 100 251 250
4 100 111 252 251
4 243 242 253 254
4 242 244 255 253
4 244 245 256 255
4 245 246 257 256
4 246 247 258 257
4 247 248 259 258
4 248 249 260 259
4 249 250 261 260
4 250 251 262 261
4 251 252 263 262
4 254 253 264 265
4 253 255 266 264
4 255 256 267 266
4 256 257 268 267
4 257 258 269 268
4 258 259 270 269
4 259 260 271 270
4 260 261 272 271
4 261 262 273 272
4 262 263 274 273
4 265 264 275 276
4 264 266 277 275
4 266 267 278 277
4 267 268 279 278
4 268 269 280 279
4 269 270 281 280
4 270 271 282 281
4 271 272 283 282
4 272 273 284 283
4 273 274 285 284
4 276 275 286 287
4 275 277 288 286
4 277 278 289 288
4 278 279 290 289
4 279 280 291 290
4 280 281 292 291
4 281 282 293 292
4 282 283 294 293
4 283 284 295 294
4 284 285 296 295
4 287 286 297 298
4 286 288 299 297
4 288 289 300 299
4 289 290 301 300
4 290 291 302 301
4 291 292 303 302
4 292 293 304 303
4 293 294 305 304
4 294 295 306 305
4 295 296 307 306
4 298 297 308 309
4 297 299 310 308
4 299 300 311 310
4 300 301 312 311
4 301 302 313 312
4 302 303 314 313
4 303 304 315 314
4 304 305 316 315
4 305 306 317 316
4 306 307 318 317
4 309 308 319 320
4 308 310 321 319
4 310 311 322 321
4 311 312 323 322
4 312 313 324 323
4 313 314 325 324
4 314 315 326 325
4 315 316 327 326
4 316 317 328 327
4 317 318 329 328
4 320 319 330 331
4 319 321 332 330
4 321 322 333 332
4 322 323 334 333
4 323 324 335 334
4 324 325 336 335
4 325 326 337 336
4 326 327 338 337
4 327 328 339 338
4 328 329 340 339
4 331 330 122 121
4 330 332 143 122
4 332 333 154 143
4 333 334 165 154
4 334 335 176 165
4 335 336 187 176
4 336 337 198 187
4 337 338 209 198
4 338 339 220 209
4 339 340 231 220
4 20 341 342 21
4 21 342 343 32
4 32 343 344 43
4 43 344 345 54
4 54 345 346 65
4 65 346 347 76
4 76 347 348 87
4 87 348 349 98
4 98 349 350 109
4 109 350 351 120
4 341 352 353 342
4 342 353 354 343
4 343 354 355 344
4 344 355 356 345
4 345 356 357 346
4 346 357 358 347
4 347 358 359 348
4 348 359 360 349
4 349 360 361 350
4 350 361 362 351
4 352 363 364 353
4 353 364 365 354
4 354 365 366 355
4 355 366 367 356
4 356 367 368 357
4 357 368 369 358
4 358 369 370 359
4 359 370 371 360
4 360 371 372 361
4 361 372 373 362
4 363 374 375 364
4 364 375 376 365
4 365 376 377 366
4 366 377 378 367
4 367 378 379 368
4 368 379 380 369
4 369 380 381 370
4 370 381 382 371
4 371 382 383 372
4 372 383 384 373
4 374 385 386 375
4 375 386 387 376
4 376 387 388 377
4 377 388 389 378
4 378 389 390 379
4 379 390 391 380
4 380 391 392 381
4 381 392 393 382
4 382 393 394 383
4 383 394 395 384
4 385 396 397 386
4 386 397 398 387
4 387 398 399 388
4 388 399 400 389
4 389 400 401 390
4 390 401 402 391
4 391 402 403 392
4 392 403 404 393
4 393 404 405 394
4 394 405 406 395
4 396 407 408 397
4 397 408 409 398
4 398 409 410 399
4 399 410 411 400
4 400 411 412 401
4 401 412 413 402
4 402 413 414 403
4 403 414 415 404
4 404 415 416 405
4 405 416 417 406
4 407 418 419 408
4 408 419 420 409
4 409 420 421 410
4 410 421 422 411
4 411 422 423 412
4 412 423 424 413
4 413 424 425 414
4 414 425 426 415
4 415 426 427 416
4 416 427 428 417
4 418 429 430 419
4 419 430 431 420
4 420 431 432 421
4 421 432 433 422
4 422 433 434 423
4 423 434 435 424
4 424 435 436 425
4 425 436 437 426
4 426 437 438 427
4 427 438 439 428
4 429 142 141 430
4 430 141 153 431
4 431 153 164 432
4 432 164 175 433
4 433 175 186 434
4 434 186 197 435
4 435 197 208 436
4 436 208 219 437
4 437 219 230 438
4 438 230 241 439
4 111 110 440 252
4 110 112 441 440
4 112 113 442 441
4 113 114 443 442
4 114 115 444 443
4 115 116 445 444
4 116 117 446 445
4 117 118 447 446
4 118 119 448 447
4 119 120 351 448
4 252 440 449 263
4 440 441 450 449
4 441 442 451 450
4 442 443 452 451
4 443 444 453 452
4 444 445 454 453
4 445 446 455 454
4 446 447 456 455
4 447 448 457 456
4 448 351 362 457
4 263 449 458 274
4 449 450 459 458
4 450 451 460 459
4 451 452 461 460
4 452 453 462 461
4 453 454 463 462
4 454 455 464 463
4 455 456 465 464
4 456 457 466 465
4 457 362 373 466
4 274 458 467 285
4 458 459 468 467
4 459 460 469 468
4 460 461 470 469
4 461 462 471 470
4 462 463 472 471
4 463 464 473 472
4 464 465 474 473
4 465 466 475 474
4 466 373 384 475
4 285 467 476 296
4 467 468 477 476
4 468 469 478 477
4 469 470 479 478
4 470 471 480 479
4 471 472 481 480
4 472 473 482 481
4 473 474 483 482
4 474 475 484 483
4 475 384 395 484
4 296 476 485 307
4 476 477 486 485
4 477 478 487 486
4 478 479 488 487
4 479 480 489 488
4 480 481 490 489
4 481 482 491 490
4 482 483 492 491
4 483 484 493 492
4 484 395 406 493
4 307 485 494 318
4 485 486 495 494
4 486 487 496 495
4 487 488 497 496
4 488 489 498 497
4 489 490 499 498
4 490 491 500 499
4 491 492 501 500
4 492 493 502 501
4 493 406 417 502
4 318 494 503 329
4 494 495 504 503
4 495 496 505 504
4 496 497 506 505
4 497 498 507 506
4 498 499 508 507
4 499 500 509 508
4 500 501 510 509
4 501 502 511 510
4 502 417 428 511
4 329 503 512 340
4 503 504 513 512
4 504 505 514 513
4 505 506 515 514
4 506 507 516 515
4 507 508 517 516
4 508 509 518 517
4 509 510 519 518
4 510 511 520 519
4 511 428 439 520
4 340 512 232 231
4 512 513 233 232
4 513 514 234 233
4 514 515 235 234
4 515 516 236 235
4 516 517 237 236
4 517 518 238 237
4 518 519 239 238
4 519 520 240 239
4 520 439 241 240
CELL_DATA 500
FIELD attributes 1
p 1 500 float
69006.7 70325.9 71219.9 71818.3 72179.1 72325.9 72258.8 71955.4 71359.3 70346
68983.9 70297.6 71187.5 71782.9 72142.2 72288.8 72222.9 71921.9 71329.5 70321.1
68936.7 70239.1 71120.3 71709.7 72065.7 72211.8 72148.3 71852.4 71267.8 70269.5
68862 70146.2 71013.3 71592.9 71943.5 72089 72029.4 71741.9 71169.8 70188.1
68754.5 70011.7 70857.8 71422.9 71765.8 71910.2 71856.6 71581.7 71028.4 70071.3
68606 69824 70640 71184.4 71516.4 71659.6 71614.4 71357.6 70831.5 69910.3
68403 69564.4 70337.6 70853.2 71170.1 71311.8 71278.5 71047.1 70560.2 69691.3
68122.7 69200.8 69913.2 70389.1 70685.7 70825.5 70808.5 70612.7 70181.9 69390.5
67721.5 68673 69299.2 69721.5 69991.6 70128.9 70133.7 69986.3 69636 68963.6
67100.2 67853.9 68360 68712.8 68949.4 69083.7 69115.6 69031.4 68794.2 68310.5
51802.8 50677.2 49991.3 49612.1 49481 49575.3 49897.1 50473.4 51369.8 52731.8
51834.8 50714.4 50032.4 49655.9 49526.1 49620.2 49940.4 50513.7 51405.7 52762
51900.4 50790.9 50117.2 49746.3 49619.1 49712.9 50029.7 50596.7 51479.6 52823.9
52002.7 50911 50250.8 49889 49766.2 49859.5 50170.8 50727.6 51595.7 52920.6
52147.4 51082.2 50442.3 50094.1 49977.8 50070.4 50373.8 50915.5 51761.5 53057.6
52343 51316.5 50706 50377.4 50270.7 50362.5 50654.7 51174.8 51989 53243.3
52603.7 51633.7 51065.5 50764.7 50671.4 50762.3 51039.1 51529 52297.9 53491.6
52953.4 52067.6 51560.4 51298.7 51223.9 51313.8 51570 52018.3 52722.3 53826.3
53438 52682.4 52263.4 52055.2 52005.4 52094.6 52323.9 52715.8 53327.3 54293.7
54162.8 53615.8 53321.9 53184.8 53167.3 53256.1 53452.1 53770.8 54252.6 55000.6
65068.6 65058.6 65038.2 65006.5 64962 64903 64827.3 64733.5 64622.9 64509.1
63741.5 63735.8 63724.3 63706.5 63681.9 63650.3 63611.7 63568.1 63525.6 63500.7
62611.6 62609.5 62605.4 62599.1 62590.8 62580.7 62570.2 62562.2 62563.2 62587.3
61571.4 61572.6 61575.1 61579 61584.7 61592.9 61605.2 61624.6 61656.9 61713.7
60577.6 60581.9 60590.5 60603.8 60622.2 60646.7 60678.7 60720.9 60777.9 60859.3
59600.6 59607.8 59622.4 59644.6 59675.2 59715 59765.3 59828.3 59907.6 60010.3
58614.8 58624.9 58645.4 58676.7 58719.5 58774.7 58843.7 58927.9 59030 59154.7
57590.8 57604 57630.7 57671.5 57727.3 57799.4 57889 57997.8 58127.2 58279
56483.9 56500.5 56534 56585.4 56656.1 56747.7 56862.5 57002.6 57169.7 57362.6
55221.4 55241.9 55283.5 55347.5 55436 55551.9 55699.1 55882.4 56106.4 56371.8
66950.4 66936.8 66909 66865.5 66804.4 66722.6 66616.4 66480.9 66311.7 66108.1
65716.2 65706.3 65686 65654.5 65610.2 65551.4 65475.8 65381 65265.1 65127.6
64622.5 64615.8 64602 64580.4 64550.2 64509.8 64457.7 64392.1 64310.8 64210.4
63582.3 63578.6 63570.8 63558.5 63540.9 63516.9 63485 63443.1 63388.5 63315.5
62560.5 62559.7 62557.8 62554.6 62549.2 62540.6 62527.5 62507.3 62476.2 62427.1
61531.4 61533.5 61537.7 61543.6 61550.7 61557.9 61563.7 61565.5 61558.4 61533.5
60470.4 60475.7 60486.3 60502 60522.3 60546.6 60573.4 60599.6 60619.8 60623.2
59346.8 59355.5 59373.1 59399.5 59434.8 59478.6 59529.8 59585.9 59640.9 59681.8
58110 58122.7 58148.2 58187 58239.7 58306.7 58388.4 58483.5 58587.1 58684.9
56675.7 56692.9 56727.8 56781.4 56855.2 56951.3 57072.1 57220.1 57395.8 57589.8
64741.1 65027.8 65278 65486 65652.1 65777.1 65861.6 65905.8 65911.5 65890
63763 63981.4 64179.9 64353.8 64501.5 64622.9 64719 64791.6 64845.8 64894.3
62866.2 63049.1 63216.7 63368.1 63502.8 63621.1 63724 63813.7 63895 63977.4
62002.8 62162.4 62308.3 62442.9 62567.4 62682.6 62789.6 62890.4 62988.3 63090.2
61154.3 61295.4 61423.7 61544.3 61659.8 61771.7 61881.3 61989.9 62099.5 62214.1
60307.5 60430.6 60541.8 60648.7 60755.3 60863.9 60975.5 61090.9 61210.8 61336
59450.3 59552 59643.3 59734.7 59831.6 59936.6 60050.8 60174.3 60306 60443.9
58567.9 58639.3 58704.2 58776 58861.1 58962.3 59080.7 59215.9 59365.2 59523
57636.4 57658.5 57684.1 57728.8 57798.7 57896.1 58021.8 58175.7 58354.7 58549.8
56614.4 56548.8 56513.3 56519.3 56568.8 56662.3 56800.4 56984.4 57214.4 57483.4
