# Forces      
# CofR        : (0.000000e+00 0.000000e+00 0.000000e+00)
# Time        forces(pressure viscous porous)	moments(pressure viscous porous)
0.001         	((1.898504e+04 -1.743694e+03 -6.122571e+04) (1.653108e+00 -8.269674e-02 -1.429632e-03) (0.000000e+00 0.000000e+00 0.000000e+00)) ((-3.359922e+05 2.225111e+05 -1.105197e+05) (4.944517e-02 1.102230e+00 -9.378952e+00) (0.000000e+00 0.000000e+00 0.000000e+00))
